
#(C) 2024 by FIZ Karlsruhe - Leibniz Institute for Information Infrastructure.  All rights reserved.
data_655986-ICSD
_database_code_ICSD 655986
_audit_creation_date 2012-02-01
_audit_update_record 2017-08-01
_chemical_name_common 'Dysprosium iron tin (1/6/6)'
_chemical_formula_structural 'Dy Fe6 Sn6'
_chemical_formula_sum 'Dy1 Fe6 Sn6'
_exptl_crystal_density_diffrn 9.07
_citation_title

;
Crystal structures of RFe6Sn6 (R = Sc, Y, Gd-Tm, Lu) rare-earth iron stannides
;
_publ_section_comment 'Cell and Type only determined'
loop_
_citation_id
_citation_journal_full
_citation_year
_citation_journal_volume
_citation_page_first
_citation_page_last
_citation_journal_id_ASTM
primary 'Materials Research Bulletin' 1991 26 1331 1338 MRBUAC
loop_
_citation_author_citation_id
_citation_author_name
primary 'El Idrissi, B. Chafik'
primary 'Venturini, G.'
primary 'Malaman, B.'
_cell_length_a 8.873(7)
_cell_length_b 46.56(2)
_cell_length_c 5.363(4)
_cell_angle_alpha 90.
_cell_angle_beta 90.
_cell_angle_gamma 90.
_cell_volume 2215.6
_cell_formula_units_Z 10
_space_group_name_H-M_alt 'A m m m'
_space_group_IT_number 65
loop_
_space_group_symop_id
_space_group_symop_operation_xyz
1 'x, -y, z'
2 'x, y, -z'
3 '-x, y, z'
4 '-x, -y, -z'
5 '-x, y, -z'
6 '-x, -y, z'
7 'x, -y, -z'
8 'x, y, z'
9 'x, -y+1/2, z+1/2'
10 'x, y+1/2, -z+1/2'
11 '-x, y+1/2, z+1/2'
12 '-x, -y+1/2, -z+1/2'
13 '-x, y+1/2, -z+1/2'
14 '-x, -y+1/2, z+1/2'
15 'x, -y+1/2, -z+1/2'
16 'x, y+1/2, z+1/2'
loop_
_atom_type_symbol
_atom_type_oxidation_number
Fe0+ 0
Sn0+ 0
Dy0+ 0
loop_
_atom_site_label
_atom_site_type_symbol
_atom_site_symmetry_multiplicity
_atom_site_Wyckoff_symbol
_atom_site_fract_x
_atom_site_fract_y
_atom_site_fract_z
_atom_site_B_iso_or_equiv
_atom_site_occupancy
Fe1 Fe0+ 16 r 0.25 0.05 0.25 . 1
Fe2 Fe0+ 16 r 0.25 0.15 0.25 . 1
Fe3 Fe0+ 8 m 0.25 0.25 0.25 . 1
Fe4 Fe0+ 8 o 0.25 0.7 0 . 1
Fe5 Fe0+ 8 o 0.25 0.1 0 . 1
Fe6 Fe0+ 4 l 0.25 0.5 0 . 1
Sn1 Sn0+ 8 o 0.167 0.6 0 . 1
Sn2 Sn0+ 8 o 0.333 0.2 0 . 1
Sn3 Sn0+ 4 k 0.167 0 0 . 1
Sn4 Sn0+ 4 g 0 0.533 0 . 1
Sn5 Sn0+ 4 h 0.5 0.533 0 . 1
Sn6 Sn0+ 4 g 0 0.067 0 . 1
Sn7 Sn0+ 4 h 0.5 0.067 0 . 1
Sn8 Sn0+ 4 g 0 0.133 0 . 1
Sn9 Sn0+ 4 h 0.5 0.133 0 . 1
Sn10 Sn0+ 4 g 0 0.667 0 . 1
Sn11 Sn0+ 4 h 0.5 0.667 0 . 1
Sn12 Sn0+ 4 g 0 0.733 0 . 1
Sn13 Sn0+ 4 h 0.5 0.733 0 . 1
Dy1 Dy0+ 4 g 0 0.2 0 . 1
Dy2 Dy0+ 4 h 0.5 0.6 0 . 1
Dy3 Dy0+ 2 d 0.5 0 0 . 1
#End of TTdata_655986-ICSD