
#(C) 2024 by FIZ Karlsruhe - Leibniz Institute for Information Infrastructure.  All rights reserved.
data_190618-ICSD
_database_code_ICSD 190618
_audit_creation_date 2014-08-01
_chemical_name_common 'Erbium iron stannide (1/6/6)'
_chemical_formula_structural 'Er Fe6 Sn6'
_chemical_formula_sum 'Er1 Fe6 Sn6'
_exptl_crystal_density_diffrn 9.09
_diffrn_ambient_temperature 5.3
_citation_title 'Magnetic ordering in Er Fe6 Sn6'
loop_
_citation_id
_citation_journal_full
_citation_year
_citation_journal_volume
_citation_page_first
_citation_page_last
_citation_journal_id_ASTM
primary 'Journal of Physics: Condensed Matter' 2003 15 1757 1771 JCOMEL
loop_
_citation_author_citation_id
_citation_author_name
primary 'Cadogan, J.M.'
primary 'Ryan, D.H.'
primary 'Moze, O.'
primary Suharyana
primary 'Hofmann, M.'
_cell_length_a 8.8737(4)
_cell_length_b 37.1808(29)
_cell_length_c 5.3780(4)
_cell_angle_alpha 90.
_cell_angle_beta 90.
_cell_angle_gamma 90.
_cell_volume 1774.37
_cell_formula_units_Z 8
_space_group_name_H-M_alt 'C m c m'
_space_group_IT_number 63
loop_
_space_group_symop_id
_space_group_symop_operation_xyz
1 '-x, y, -z+1/2'
2 '-x, -y, z+1/2'
3 '-x, y, z'
4 '-x, -y, -z'
5 'x, -y, z+1/2'
6 'x, y, -z+1/2'
7 'x, -y, -z'
8 'x, y, z'
9 '-x+1/2, y+1/2, -z+1/2'
10 '-x+1/2, -y+1/2, z+1/2'
11 '-x+1/2, y+1/2, z'
12 '-x+1/2, -y+1/2, -z'
13 'x+1/2, -y+1/2, z+1/2'
14 'x+1/2, y+1/2, -z+1/2'
15 'x+1/2, -y+1/2, -z'
16 'x+1/2, y+1/2, z'
loop_
_atom_type_symbol
_atom_type_oxidation_number
Er0+ 0
Fe0+ 0
Sn0+ 0
loop_
_atom_site_label
_atom_site_type_symbol
_atom_site_symmetry_multiplicity
_atom_site_Wyckoff_symbol
_atom_site_fract_x
_atom_site_fract_y
_atom_site_fract_z
_atom_site_U_iso_or_equiv
_atom_site_occupancy
Er1 Er0+ 4 c 0 0.8086(1) 0.25 0.0173(22) 1.
Er2 Er0+ 4 c 0 0.0680(9) 0.25 0.0173(22) 1.
Fe1 Fe0+ 8 d 0.25 0.25 0 0.0064(7) 1.
Fe2 Fe0+ 8 e 0.2437(22) 0 0 0.0064(7) 1.
Fe3 Fe0+ 8 g 0.2473(25) 0.1899(6) 0.25 0.0064(7) 1.
Fe4 Fe0+ 8 g 0.2519(15) 0.4386(7) 0.25 0.0064(7) 1.
Fe5 Fe0+ 16 h 0.2497(16) 0.1254(5) 0.0129(30) 0.0064(7) 1.
Sn1 Sn0+ 4 c 0 0.2282(13) 0.25 0.0011(8) 1.
Sn2 Sn0+ 4 c 0 0.7246(11) 0.25 0.0011(8) 1.
Sn3 Sn0+ 4 c 0 0.1453(12) 0.25 0.0011(8) 1.
Sn4 Sn0+ 4 c 0 0.6456(12) 0.25 0.0011(8) 1.
Sn5 Sn0+ 4 c 0 0.8972(13) 0.25 0.0011(8) 1.
Sn6 Sn0+ 4 c 0 0.3983(13) 0.25 0.0011(8) 1.
Sn7 Sn0+ 4 c 0 0.4777(14) 0.25 0.0011(8) 1.
Sn8 Sn0+ 4 c 0 0.9770(12) 0.25 0.0011(8) 1.
Sn9 Sn0+ 8 g 0.3414(23) 0.8124(8) 0.25 0.0011(8) 1.
Sn10 Sn0+ 8 g 0.3279(23) 0.0578(6) 0.25 0.0011(8) 1.
#End of TTdata_190618-ICSD