
#(C) 2024 by FIZ Karlsruhe - Leibniz Institute for Information Infrastructure.  All rights reserved.
data_106584-ICSD
_database_code_ICSD 106584
_audit_creation_date 2005-04-01
_audit_update_record 2017-08-01
_chemical_name_common 'Holmium iron tin (1/6/6)'
_chemical_formula_structural 'Ho Fe6 Sn6'
_chemical_formula_sum 'Fe6 Ho1 Sn6'
_chemical_name_structure_type HoFe6Sn6
_exptl_crystal_density_diffrn 9.04
_citation_title

;
Crystal structures of RFe6Sn6 (R = Sc, Y, Gd-Tm, Lu) rare-earth iron stannides
;
loop_
_citation_id
_citation_journal_full
_citation_year
_citation_journal_volume
_citation_page_first
_citation_page_last
_citation_journal_id_ASTM
primary 'Materials Research Bulletin' 1991 26 1331 1338 MRBUAC
loop_
_citation_author_citation_id
_citation_author_name
primary 'El Idrissi, B. Chafik'
primary 'Venturini, G.'
primary 'Malaman, B.'
_cell_length_a 8.899(4)
_cell_length_b 27.93(1)
_cell_length_c 5.374(2)
_cell_angle_alpha 90.
_cell_angle_beta 90.
_cell_angle_gamma 90.
_cell_volume 1335.7
_cell_formula_units_Z 6
_space_group_name_H-M_alt 'I m m m'
_space_group_IT_number 71
loop_
_space_group_symop_id
_space_group_symop_operation_xyz
1 'x, y, -z'
2 'x, -y, z'
3 '-x, y, z'
4 '-x, -y, -z'
5 '-x, -y, z'
6 '-x, y, -z'
7 'x, -y, -z'
8 'x, y, z'
9 'x+1/2, y+1/2, -z+1/2'
10 'x+1/2, -y+1/2, z+1/2'
11 '-x+1/2, y+1/2, z+1/2'
12 '-x+1/2, -y+1/2, -z+1/2'
13 '-x+1/2, -y+1/2, z+1/2'
14 '-x+1/2, y+1/2, -z+1/2'
15 'x+1/2, -y+1/2, -z+1/2'
16 'x+1/2, y+1/2, z+1/2'
loop_
_atom_type_symbol
_atom_type_oxidation_number
Fe0+ 0
Sn0+ 0
Ho0+ 0
loop_
_atom_site_label
_atom_site_type_symbol
_atom_site_symmetry_multiplicity
_atom_site_Wyckoff_symbol
_atom_site_fract_x
_atom_site_fract_y
_atom_site_fract_z
_atom_site_B_iso_or_equiv
_atom_site_occupancy
Fe1 Fe0+ 4 f 0.245(9) 0 0.5 0.9(3) 1.
Fe2 Fe0+ 8 k 0.25 0.25 0.25 0.9(3) 1.
Fe3 Fe0+ 8 n 0.245(9) 0.333 0.5 0.9(3) 1.
Fe4 Fe0+ 16 o 0.245(9) 0.083 0.25 0.9(3) 1.
Sn1 Sn0+ 4 h 0 0.056 0.5 0.9(3) 1.
Sn2 Sn0+ 4 g 0.5 0.056 0.5 0.9(3) 1.
Sn3 Sn0+ 4 g 0 0.111 0 0.9(3) 1.
Sn4 Sn0+ 4 h 0.5 0.111 0 0.9(3) 1.
Sn5 Sn0+ 4 g 0 0.222 0 0.9(3) 1.
Sn6 Sn0+ 4 h 0.5 0.222 0 0.9(3) 1.
Sn7 Sn0+ 4 e 0.345(2) 0 0 0.9(3) 1.
Sn8 Sn0+ 8 n 0.345(2) 0.167 0.5 0.9(3) 1.
Ho1 Ho0+ 4 h 0 0.167 0.5 0.9(3) 1.
Ho2 Ho0+ 2 a 0 0 0 0.9(3) 1.
#End of TTdata_106584-ICSD