
#(C) 2024 by FIZ Karlsruhe - Leibniz Institute for Information Infrastructure.  All rights reserved.
data_103465-ICSD
_database_code_ICSD 103465
_audit_creation_date 2004-10-01
_audit_update_record 2020-02-01
_chemical_name_common 'Iron gallium scandium (6/6/1)'
_chemical_formula_structural 'Fe6 Ga6 Sc'
_chemical_formula_sum 'Fe6 Ga6 Sc1'
_chemical_name_structure_type ScFe6Ga6
_exptl_crystal_density_diffrn 7.29
_citation_title

;
Crystal structure of the compound Sc Fe6 Ga6, their analogues and new
representatives of the structure types Th Mn12 and Th2 Zn17
;
loop_
_citation_id
_citation_journal_full
_citation_year
_citation_journal_volume
_citation_page_first
_citation_page_last
_citation_journal_id_ASTM
primary

;
Dopovidi Akademii Nauk Ukrains'koi RSR, Seriya B: Geologichni, Khimichni ta
Biologichni Nauki
; 1982 1982 30 33 DANND6
loop_
_citation_author_citation_id
_citation_author_name
primary 'Belyavina, N.N.'
primary 'Markiv, V.Ya.'
_cell_length_a 8.431
_cell_length_b 8.613
_cell_length_c 5.009
_cell_angle_alpha 90.
_cell_angle_beta 90.
_cell_angle_gamma 90.
_cell_volume 363.73
_cell_formula_units_Z 2
_space_group_name_H-M_alt 'I m m m'
_space_group_IT_number 71
loop_
_space_group_symop_id
_space_group_symop_operation_xyz
1 'x, y, -z'
2 'x, -y, z'
3 '-x, y, z'
4 '-x, -y, -z'
5 '-x, -y, z'
6 '-x, y, -z'
7 'x, -y, -z'
8 'x, y, z'
9 'x+1/2, y+1/2, -z+1/2'
10 'x+1/2, -y+1/2, z+1/2'
11 '-x+1/2, y+1/2, z+1/2'
12 '-x+1/2, -y+1/2, -z+1/2'
13 '-x+1/2, -y+1/2, z+1/2'
14 '-x+1/2, y+1/2, -z+1/2'
15 'x+1/2, -y+1/2, -z+1/2'
16 'x+1/2, y+1/2, z+1/2'
loop_
_atom_type_symbol
_atom_type_oxidation_number
Fe0+ 0
Ga0+ 0
Sc0+ 0
loop_
_atom_site_label
_atom_site_type_symbol
_atom_site_symmetry_multiplicity
_atom_site_Wyckoff_symbol
_atom_site_fract_x
_atom_site_fract_y
_atom_site_fract_z
_atom_site_B_iso_or_equiv
_atom_site_occupancy
Fe1 Fe0+ 4 f 0.257 0.5 0 -0.54 1.
Fe2 Fe0+ 8 k 0.25 0.25 0.25 3.19 1.
Ga1 Ga0+ 4 e 0.336 0 0 0.77 1.
Ga2 Ga0+ 4 g 0 0.345 0 -0.17 1.
Ga3 Ga0+ 4 h 0 0.835 0.5 0.75 1.
Sc1 Sc0+ 2 a 0 0 0 -0.99 1.
#End of TTdata_103465-ICSD