
#(C) 2024 by FIZ Karlsruhe - Leibniz Institute for Information Infrastructure.  All rights reserved.
data_106583-ICSD
_database_code_ICSD 106583
_audit_creation_date 2005-04-01
_audit_update_record 2017-08-01
_chemical_name_common 'Terbium iron tin (1/6/6)'
_chemical_formula_structural 'Tb Fe6 Sn6'
_chemical_formula_sum 'Fe6 Sn6 Tb1'
_chemical_name_structure_type TbFe6Sn6
_exptl_crystal_density_diffrn 8.95
_citation_title

;
Crystal structures of RFe6Sn6 (R = Sc, Y, Gd-Tm, Lu) rare-earth iron stannides
;
loop_
_citation_id
_citation_journal_full
_citation_year
_citation_journal_volume
_citation_page_first
_citation_page_last
_citation_journal_id_ASTM
primary 'Materials Research Bulletin' 1991 26 1331 1338 MRBUAC
loop_
_citation_author_citation_id
_citation_author_name
primary 'El Idrissi, B. Chafik'
primary 'Venturini, G.'
primary 'Malaman, B.'
_cell_length_a 8.920(9)
_cell_length_b 18.62(2)
_cell_length_c 5.390(3)
_cell_angle_alpha 90.
_cell_angle_beta 90.
_cell_angle_gamma 90.
_cell_volume 895.23
_cell_formula_units_Z 4
_space_group_name_H-M_alt 'C m c m'
_space_group_IT_number 63
loop_
_space_group_symop_id
_space_group_symop_operation_xyz
1 '-x, y, -z+1/2'
2 '-x, -y, z+1/2'
3 '-x, y, z'
4 '-x, -y, -z'
5 'x, -y, z+1/2'
6 'x, y, -z+1/2'
7 'x, -y, -z'
8 'x, y, z'
9 '-x+1/2, y+1/2, -z+1/2'
10 '-x+1/2, -y+1/2, z+1/2'
11 '-x+1/2, y+1/2, z'
12 '-x+1/2, -y+1/2, -z'
13 'x+1/2, -y+1/2, z+1/2'
14 'x+1/2, y+1/2, -z+1/2'
15 'x+1/2, -y+1/2, -z'
16 'x+1/2, y+1/2, z'
loop_
_atom_type_symbol
_atom_type_oxidation_number
Fe0+ 0
Sn0+ 0
Tb0+ 0
loop_
_atom_site_label
_atom_site_type_symbol
_atom_site_symmetry_multiplicity
_atom_site_Wyckoff_symbol
_atom_site_fract_x
_atom_site_fract_y
_atom_site_fract_z
_atom_site_B_iso_or_equiv
_atom_site_occupancy
Fe1 Fe0+ 8 d 0.25 0.25 0 1.5(2) 1.
Fe2 Fe0+ 8 e 0.237(7) 0 0 1.5(2) 1.
Fe3 Fe0+ 8 g 0.237(7) 0.125 0.75 1.5(2) 1.
Sn1 Sn0+ 4 c 0 0.042 0.75 1.5(2) 1.
Sn2 Sn0+ 4 c 0.5 0.042 0.75 1.5(2) 1.
Sn3 Sn0+ 4 c 0 0.208 0.75 1.5(2) 1.
Sn4 Sn0+ 4 c 0.5 0.208 0.75 1.5(2) 1.
Sn5 Sn0+ 8 g 0.345(3) 0.125 0.25 1.5(2) 1.
Tb1 Tb0+ 4 c 0 0.125 0.25 1.5(2) 1.
#End of TTdata_106583-ICSD